data_x17059 
 
loop_
 _space_group_symop_operation_xyz 
 'x, y, z' 
 '-x, -y, -z' 
 
_cell_length_a                    7.7283(6) 
_cell_length_b                    7.7628(6) 
_cell_length_c                    16.8805(13) 
_cell_angle_alpha                 78.077(4) 
_cell_angle_beta                  89.228(4) 
_cell_angle_gamma                 81.788(4) 
_cell_volume                      980.57(13) 
_cell_formula_units_Z             1 
_cell_measurement_temperature     240(2) 
_cell_measurement_reflns_used     9955 
_cell_measurement_theta_min       2.68 
_cell_measurement_theta_max       69.04 
 
_exptl_crystal_description        slab 
_exptl_crystal_colour             blue 
_exptl_crystal_density_meas       ? 
_exptl_crystal_density_method     ? 
_exptl_crystal_density_diffrn     1.233 
_exptl_crystal_F_000              382 
_exptl_transmission_factor_min    ? 
_exptl_transmission_factor_max    ? 
_exptl_crystal_size_max           0.300 
_exptl_crystal_size_mid           0.280 
_exptl_crystal_size_min           0.050 
_exptl_absorpt_coefficient_mu     2.077 
_shelx_estimated_absorpt_T_min    0.575 
_shelx_estimated_absorpt_T_max    0.903 
_exptl_absorpt_correction_type    multi-scan 
_exptl_absorpt_correction_T_min   0.463 
_exptl_absorpt_correction_T_max   0.817 
_exptl_absorpt_process_details    '<i>SADABS</i> (Krause et al., 2015)' 
_exptl_absorpt_special_details 
; 
In addition to absorption, multi-scan techniques also correct other slowly 
varying changes in scale factor over reciprocal space, such as those caused 
by x-ray beam inhomogeneity, goniometer imperfection, crystal decomposition, 
crystal longer than the x-ray beam cross section, absorption by the crystal 
mount etc.  These account, by and large, for much of the difference between 
estimated values of Tmin and Tmax and the _exptl_absorpt_correction_ values. 
; 
 
_exptl_special_details 
; 
The crystal was mounted using polyisobutene oil on the tip of a fine glass 
fibre, which was fastened in a copper mounting pin with electrical solder. 
It was placed directly into the cold gas stream of a liquid-nitrogen based 
cryostat (Hope, 1994; Parkin & Hope, 1998). 
 
The crystals underwent a destructive phase transition when cooled to 90K. 
Visual inspection of crystal integrity and diffraction quality vs temperature 
established a safe temperature for data collection of -33\% C. 
; 
 
_diffrn_ambient_temperature       240(2) 
_diffrn_radiation_wavelength      1.54178 
_diffrn_radiation_type            CuK\a 
_diffrn_source                    'fine-focus rotating anode' 
_diffrn_measurement_device_type   'Bruker X8 Proteum diffractometer' 
_diffrn_measurement_method        '\f and \w scans' 
_diffrn_detector_area_resol_mean  5.6 
_diffrn_reflns_number             11830 
_diffrn_reflns_av_unetI/netI      0.0400 
_diffrn_reflns_av_R_equivalents   0.0392 
_diffrn_reflns_limit_h_min        -9 
_diffrn_reflns_limit_h_max        5 
_diffrn_reflns_limit_k_min        -8 
_diffrn_reflns_limit_k_max        9 
_diffrn_reflns_limit_l_min        -20 
_diffrn_reflns_limit_l_max        20 
_diffrn_reflns_theta_min          2.676 
_diffrn_reflns_theta_max          69.221 
_diffrn_reflns_theta_full         67.679 
_diffrn_measured_fraction_theta_max                0.948 
_diffrn_measured_fraction_theta_full               0.963 
_diffrn_reflns_Laue_measured_fraction_max          0.948 
_diffrn_reflns_Laue_measured_fraction_full         0.963 
_diffrn_reflns_point_group_measured_fraction_max   0.948 
_diffrn_reflns_point_group_measured_fraction_full  0.963 
 
_reflns_number_total              3482 
_reflns_number_gt                 3208 
_reflns_threshold_expression      'I > 2\s(I)' 
_reflns_Friedel_coverage          0.000 
_reflns_Friedel_fraction_max      . 
_reflns_Friedel_fraction_full     . 
_reflns_special_details 
; 
Reflections were merged by SHELXL according to the crystal 
class for the calculation of statistics and refinement. 
 
_reflns_Friedel_fraction is defined as the number of unique 
Friedel pairs measured divided by the number that would be 
possible theoretically, ignoring centric projections and 
systematic absences. 
; 
 
_computing_data_collection        '<i>APEX2</i> (Bruker-AXS, 2006)' 
_computing_cell_refinement        '<i>APEX2</i> (Bruker-AXS, 2006)' 
_computing_data_reduction         '<i>APEX2</i> (Bruker-AXS, 2006)' 
_computing_structure_solution     '<i>SHELXT</i> (Sheldrick, 2015a)' 
_computing_structure_refinement   '<i>SHELXL-2016/6</i> (Sheldrick, 2015b)' 
_computing_molecular_graphics     '<i>XP in SHELXTL</i> (Sheldrick, 2008)' 
_computing_publication_material 
'<i>SHELX</i> (Sheldrick, 2008) and <i>CIFFIX</i> (Parkin, 2013)' 
 
_refine_special_details 
; 
Refinement progress was checked using <i>Platon</i> (Spek, 2009) and by 
an <i>R</i>-tensor (Parkin, 2000). The final model was further checked 
with the IUCr utility <i>checkCIF</i>. 
; 
_refine_ls_structure_factor_coef  Fsqd 
_refine_ls_matrix_type            full 
_refine_ls_weighting_scheme       calc 
_refine_ls_weighting_details 
'w=1/[\s^2^(Fo^2^)+(0.0378P)^2^+0.7566P] where P=(Fo^2^+2Fc^2^)/3' 
_atom_sites_solution_primary      direct 
_atom_sites_solution_secondary    difmap 
_atom_sites_solution_hydrogens    difmap 
_refine_ls_hydrogen_treatment     constr 
_refine_ls_extinction_method      none 
_refine_ls_extinction_coef        . 
_refine_ls_number_reflns          3482 
_refine_ls_number_parameters      244 
_refine_ls_number_restraints      22 
_refine_ls_R_factor_all           0.0422 
_refine_ls_R_factor_gt            0.0389 
_refine_ls_wR_factor_ref          0.1081 
_refine_ls_wR_factor_gt           0.1058 
_refine_ls_goodness_of_fit_ref    1.155 
_refine_ls_restrained_S_all       1.154 
_refine_ls_shift/su_max           0.000 
_refine_ls_shift/su_mean          0.000 
 
loop_ 
 _atom_site_label 
 _atom_site_type_symbol 
 _atom_site_fract_x 
 _atom_site_fract_y 
 _atom_site_fract_z 
 _atom_site_U_iso_or_equiv 
 _atom_site_adp_type 
 _atom_site_occupancy 
 _atom_site_site_symmetry_order 
 _atom_site_calc_flag 
 _atom_site_refinement_flags_posn 
 _atom_site_refinement_flags_adp 
 _atom_site_refinement_flags_occupancy 
 _atom_site_disorder_assembly 
 _atom_site_disorder_group 
Ge1 Ge 0.20816(4) 0.24935(4) 0.82517(2) 0.04344(14) Uani 1 1 d D . . . . 
C1 C 0.4378(3) 0.4465(4) 0.57991(15) 0.0378(6) Uani 1 1 d . . . . . 
C2 C 0.5457(3) 0.3218(4) 0.54311(16) 0.0377(6) Uani 1 1 d . . . . . 
C3 C 0.5907(3) 0.1427(4) 0.58395(17) 0.0420(6) Uani 1 1 d . . . . . 
H3A H 0.550294 0.106600 0.636710 0.050 Uiso 1 1 calc R U . . . 
C4 C 0.6927(3) 0.0194(4) 0.54816(17) 0.0411(6) Uani 1 1 d . . . . . 
C5 C 0.7370(4) -0.1624(4) 0.5894(2) 0.0518(7) Uani 1 1 d . . . . . 
H5A H 0.697807 -0.199216 0.642338 0.062 Uiso 1 1 calc R U . . . 
C6 C 0.8355(4) -0.2821(5) 0.5525(2) 0.0575(8) Uani 1 1 d . . . . . 
H6A H 0.864498 -0.400666 0.580291 0.069 Uiso 1 1 calc R U . . . 
C7 C 0.8938(4) -0.2300(5) 0.4736(2) 0.0563(8) Uani 1 1 d . . . . . 
H7A H 0.960874 -0.314793 0.449039 0.068 Uiso 1 1 calc R U . . . 
C8 C 0.8558(4) -0.0603(4) 0.43192(19) 0.0494(7) Uani 1 1 d . . . . . 
H8A H 0.897709 -0.028471 0.379140 0.059 Uiso 1 1 calc R U . . . 
C9 C 0.7517(3) 0.0722(4) 0.46769(17) 0.0409(6) Uani 1 1 d . . . . . 
C10 C 0.7098(3) 0.2471(4) 0.42684(17) 0.0414(6) Uani 1 1 d . . . . . 
H10A H 0.750806 0.281650 0.374082 0.050 Uiso 1 1 calc R U . . . 
C11 C 0.6073(3) 0.3741(4) 0.46258(16) 0.0385(6) Uani 1 1 d . . . . . 
C12 C 0.3707(4) 0.3896(4) 0.65838(17) 0.0420(6) Uani 1 1 d . . . . . 
C13 C 0.3119(4) 0.3385(4) 0.72389(18) 0.0472(7) Uani 1 1 d . . . . . 
C14 C -0.0445(4) 0.3252(6) 0.8126(2) 0.0644(9) Uani 1 1 d . . . . . 
H14A H -0.099678 0.278895 0.864435 0.077 Uiso 1 1 calc R U . . . 
C15 C -0.1223(6) 0.2512(9) 0.7469(3) 0.1031(18) Uani 1 1 d . . . . . 
H15A H -0.245250 0.299354 0.739260 0.155 Uiso 1 1 calc R U . . . 
H15B H -0.109994 0.122606 0.762748 0.155 Uiso 1 1 calc R U . . . 
H15C H -0.061420 0.284477 0.696647 0.155 Uiso 1 1 calc R U . . . 
C16 C -0.0824(6) 0.5279(7) 0.7957(3) 0.0888(14) Uani 1 1 d . . . . . 
H16A H -0.206889 0.565456 0.786120 0.133 Uiso 1 1 calc R U . . . 
H16B H -0.019202 0.576569 0.748199 0.133 Uiso 1 1 calc R U . . . 
H16C H -0.045287 0.570411 0.841926 0.133 Uiso 1 1 calc R U . . . 
C17 C 0.3072(5) 0.3601(5) 0.9070(2) 0.0589(8) Uani 1 1 d . . . . . 
H17A H 0.275652 0.490259 0.888294 0.071 Uiso 1 1 calc R U . . . 
C18 C 0.2239(6) 0.3127(7) 0.9883(2) 0.0855(13) Uani 1 1 d . . . . . 
H18A H 0.267758 0.377282 1.025337 0.128 Uiso 1 1 calc R U . . . 
H18B H 0.252313 0.185821 1.009571 0.128 Uiso 1 1 calc R U . . . 
H18C H 0.098035 0.344368 0.982397 0.128 Uiso 1 1 calc R U . . . 
C19 C 0.5012(6) 0.3246(9) 0.9106(3) 0.1023(17) Uani 1 1 d . . . . . 
H19A H 0.544348 0.384947 0.949493 0.153 Uiso 1 1 calc R U . . . 
H19B H 0.547058 0.367996 0.857554 0.153 Uiso 1 1 calc R U . . . 
H19C H 0.538836 0.197557 0.926971 0.153 Uiso 1 1 calc R U . . . 
C20 C 0.2906(17) -0.0126(10) 0.8613(6) 0.055(3) Uani 0.52(2) 1 d D . P A 1 
H20' H 0.399670 -0.026151 0.893462 0.066 Uiso 0.52(2) 1 calc R U P A 1 
C21 C 0.160(2) -0.103(3) 0.9153(10) 0.073(4) Uani 0.52(2) 1 d D . P A 1 
H21A H 0.202323 -0.229448 0.930727 0.109 Uiso 0.52(2) 1 calc R U P A 1 
H21B H 0.049117 -0.085470 0.886522 0.109 Uiso 0.52(2) 1 calc R U P A 1 
H21C H 0.144792 -0.053050 0.963420 0.109 Uiso 0.52(2) 1 calc R U P A 1 
C22 C 0.333(3) -0.1048(16) 0.7906(7) 0.105(6) Uani 0.52(2) 1 d D . P A 1 
H22A H 0.372788 -0.230195 0.811104 0.157 Uiso 0.52(2) 1 calc R U P A 1 
H22B H 0.423944 -0.051434 0.758477 0.157 Uiso 0.52(2) 1 calc R U P A 1 
H22C H 0.228786 -0.091392 0.757118 0.157 Uiso 0.52(2) 1 calc R U P A 1 
C20' C 0.2380(19) -0.0110(14) 0.8336(11) 0.080(4) Uani 0.48(2) 1 d D . P A 2 
H20A H 0.176106 -0.028688 0.785537 0.096 Uiso 0.48(2) 1 calc R U P A 2 
C21' C 0.144(4) -0.097(4) 0.9038(17) 0.147(12) Uani 0.48(2) 1 d D . P A 2 
H21D H 0.137034 -0.218910 0.900163 0.221 Uiso 0.48(2) 1 calc R U P A 2 
H21F H 0.026764 -0.032712 0.904341 0.221 Uiso 0.48(2) 1 calc R U P A 2 
H21G H 0.205885 -0.095996 0.953285 0.221 Uiso 0.48(2) 1 calc R U P A 2 
C22' C 0.4266(17) -0.083(2) 0.8238(13) 0.104(5) Uani 0.48(2) 1 d D . P A 2 
H22D H 0.501069 -0.017817 0.848582 0.156 Uiso 0.48(2) 1 calc R U P A 2 
H22F H 0.452373 -0.070106 0.766645 0.156 Uiso 0.48(2) 1 calc R U P A 2 
H22G H 0.448029 -0.208067 0.849870 0.156 Uiso 0.48(2) 1 calc R U P A 2 
 
