 
data_x15192_a
 
_audit_creation_method            'SHELXL-2014/7'
_shelx_SHELXL_version_number      '2014/7'
_chemical_name_systematic         ?
_chemical_name_common             ?
_chemical_melting_point           ?
_chemical_formula_moiety          ?
_chemical_formula_sum
 'C49 Si4' 
_chemical_formula_weight          700.85

loop_
 _atom_type_symbol
 _atom_type_description
 _atom_type_scat_dispersion_real
 _atom_type_scat_dispersion_imag
 _atom_type_scat_source
 'C'  'C'   0.0181   0.0091
 'International Tables Vol C Tables 4.2.6.8 and 6.1.1.4'
 'Si'  'Si'   0.2541   0.3302
 'International Tables Vol C Tables 4.2.6.8 and 6.1.1.4'
 
_space_group_crystal_system       orthorhombic
_space_group_IT_number            36
_space_group_name_H-M_alt         'C m c 21'
_space_group_name_Hall            'C 2c -2'
 
_shelx_space_group_comment
;
The symmetry employed for this shelxl refinement is uniquely defined
by the following loop, which should always be used as a source of
symmetry information in preference to the above space-group names.
They are only intended as comments.
;
 
loop_
 _space_group_symop_operation_xyz
 'x, y, z'
 '-x, -y, z+1/2'
 '-x, y, z'
 'x, -y, z+1/2'
 'x+1/2, y+1/2, z'
 '-x+1/2, -y+1/2, z+1/2'
 '-x+1/2, y+1/2, z'
 'x+1/2, -y+1/2, z+1/2'
 
_cell_length_a                    6.9516(2)
_cell_length_b                    33.0401(18)
_cell_length_c                    20.5485(10)
_cell_angle_alpha                 90
_cell_angle_beta                  90
_cell_angle_gamma                 90
_cell_volume                      4719.6(4)
_cell_formula_units_Z             4
_cell_measurement_temperature     293(2)
_cell_measurement_reflns_used     ?
_cell_measurement_theta_min       ?
_cell_measurement_theta_max       ?
 
_exptl_crystal_description        ?
_exptl_crystal_colour             ?
_exptl_crystal_density_meas       ?
_exptl_crystal_density_method     ?
_exptl_crystal_density_diffrn     0.986          
_exptl_crystal_F_000              1400
_exptl_transmission_factor_min    ?
_exptl_transmission_factor_max    ?
_exptl_crystal_size_max           ?
_exptl_crystal_size_mid           ?
_exptl_crystal_size_min           ?
_exptl_absorpt_coefficient_mu     1.380
_shelx_estimated_absorpt_T_min    ?
_shelx_estimated_absorpt_T_max    ?
_exptl_absorpt_correction_type    ?
_exptl_absorpt_correction_T_min   ?
_exptl_absorpt_correction_T_max   ?
_exptl_absorpt_process_details    ?
_exptl_absorpt_special_details    ?
_diffrn_ambient_temperature       293(2)
_diffrn_radiation_wavelength      1.54178
_diffrn_radiation_type            CuK\a
_diffrn_source                    ?
_diffrn_measurement_device_type   ?
_diffrn_measurement_method        ?
_diffrn_detector_area_resol_mean  ?
_diffrn_reflns_number             32118
_diffrn_reflns_av_unetI/netI      0.0909
_diffrn_reflns_av_R_equivalents   0.1295
_diffrn_reflns_limit_h_min        -3
_diffrn_reflns_limit_h_max        8
_diffrn_reflns_limit_k_min        -39
_diffrn_reflns_limit_k_max        39
_diffrn_reflns_limit_l_min        -24
_diffrn_reflns_limit_l_max        24
_diffrn_reflns_theta_min          2.675
_diffrn_reflns_theta_max          68.296
_diffrn_reflns_theta_full         67.679
_diffrn_measured_fraction_theta_max   0.986
_diffrn_measured_fraction_theta_full  0.987
_diffrn_reflns_Laue_measured_fraction_max    0.986
_diffrn_reflns_Laue_measured_fraction_full   0.987
_diffrn_reflns_point_group_measured_fraction_max   0.962
_diffrn_reflns_point_group_measured_fraction_full  0.964
_reflns_number_total              4529
_reflns_number_gt                 1975
_reflns_threshold_expression      'I > 2\s(I)'
_reflns_Friedel_coverage          0.893
_reflns_Friedel_fraction_max      0.936
_reflns_Friedel_fraction_full     0.940
 
_reflns_special_details
;
 Reflections were merged by SHELXL according to the crystal
 class for the calculation of statistics and refinement.
 
 _reflns_Friedel_fraction is defined as the number of unique
 Friedel pairs measured divided by the number that would be
 possible theoretically, ignoring centric projections and
 systematic absences.
;
 
_computing_data_collection        ?
_computing_cell_refinement        ?
_computing_data_reduction         ?
_computing_structure_solution     ?
_computing_structure_refinement 'SHELXL-2014/7 (Sheldrick, 2014)'
_computing_molecular_graphics     ?
_computing_publication_material   ?
_refine_special_details           ?
_refine_ls_structure_factor_coef  Fsqd
_refine_ls_matrix_type            full
_refine_ls_weighting_scheme       calc
_refine_ls_weighting_details
'w=1/[\s^2^(Fo^2^)+(0.1000P)^2^] where P=(Fo^2^+2Fc^2^)/3'
_atom_sites_solution_primary      ?
_atom_sites_solution_secondary    ?
_atom_sites_solution_hydrogens    .
_refine_ls_hydrogen_treatment     undef
_refine_ls_extinction_method      none
_refine_ls_extinction_coef        .
_refine_ls_abs_structure_details
;
 Flack x determined using 641 quotients [(I+)-(I-)]/[(I+)+(I-)]
 (Parsons, Flack and Wagner, Acta Cryst. B69 (2013) 249-259).
;
_refine_ls_abs_structure_Flack    0.02(3)
_chemical_absolute_configuration  ?
_refine_ls_number_reflns          4529
_refine_ls_number_parameters      291
_refine_ls_number_restraints      1
_refine_ls_R_factor_all           0.2019
_refine_ls_R_factor_gt            0.0977
_refine_ls_wR_factor_ref          0.2715
_refine_ls_wR_factor_gt           0.2233
_refine_ls_goodness_of_fit_ref    1.225
_refine_ls_restrained_S_all       1.225
_refine_ls_shift/su_max           0.093
_refine_ls_shift/su_mean          0.007
 
loop_
 _atom_site_label
 _atom_site_type_symbol
 _atom_site_fract_x
 _atom_site_fract_y
 _atom_site_fract_z
 _atom_site_U_iso_or_equiv
 _atom_site_adp_type
 _atom_site_occupancy
 _atom_site_site_symmetry_order  
 _atom_site_calc_flag
 _atom_site_refinement_flags_posn
 _atom_site_refinement_flags_adp
 _atom_site_refinement_flags_occupancy
 _atom_site_disorder_assembly
 _atom_site_disorder_group
Si3 Si 0.0000 -0.28658(17) -0.5837(3) 0.0977(18) Uani 1 2 d S T P . .
Si4 Si 0.0000 0.0615(2) -0.4979(5) 0.130(2) Uani 1 2 d S T P . .
C5 C 0.0000 -0.1079(6) -0.3792(8) 0.069(5) Uani 1 2 d S T P . .
C6 C 0.0000 -0.1376(5) -0.5047(10) 0.063(4) Uani 1 2 d S T P . .
C8 C 0.0000 -0.1532(6) -0.5682(10) 0.074(5) Uani 1 2 d S T P . .
C10 C 0.0000 -0.0956(5) -0.4962(10) 0.058(4) Uani 1 2 d S T P . .
C11 C 0.0000 -0.0803(5) -0.4313(8) 0.071(4) Uani 1 2 d S T P . .
C14 C 0.0000 -0.1482(5) -0.3935(10) 0.063(4) Uani 1 2 d S T P . .
C16 C 0.0000 -0.1649(6) -0.4523(10) 0.069(5) Uani 1 2 d S T P . .
C18 C 0.0000 -0.0694(5) -0.5532(9) 0.067(5) Uani 1 2 d S T P . .
C19 C 0.0000 -0.0850(6) -0.6155(7) 0.077(5) Uani 1 2 d S T P . .
C20 C 0.0000 -0.1969(6) -0.5794(10) 0.082(5) Uani 1 2 d S T P . .
C22 C 0.0000 -0.1770(9) -0.3392(13) 0.120(9) Uani 1 2 d S T P . .
C23 C 0.0000 -0.1274(5) -0.6234(10) 0.075(5) Uani 1 2 d S T P . .
C24 C 0.0000 -0.0262(6) -0.5429(9) 0.082(5) Uani 1 2 d S T P . .
C26 C 0.0000 -0.1181(11) -0.2606(10) 0.134(11) Uani 1 2 d S T P . .
C28 C 0.0000 0.0109(6) -0.5287(9) 0.086(5) Uani 1 2 d S T P . .
C30 C 0.212(2) -0.3055(4) -0.6294(9) 0.146(6) Uani 1 1 d . . . . .
C703 C 0.277(6) 0.0783(12) -0.477(2) 0.37(2) Uiso 1 1 d . . . . .
C704 C 0.0000 0.0644(17) -0.408(3) 0.32(3) Uiso 1 2 d S . P . .
C707 C 0.0000 0.0982(17) -0.561(3) 0.33(3) Uiso 1 2 d S . P . .
C801 C 0.0000 -0.1615(10) -0.279(2) 0.153(13) Uani 1 2 d S T P . .
C804 C 0.0000 -0.0906(8) -0.3154(11) 0.106(7) Uani 1 2 d S T P . .
C901 C 0.0000 -0.2319(7) -0.5848(12) 0.102(7) Uani 1 2 d S T P . .
C909 C 0.0000 -0.3035(7) -0.4960(14) 0.136(8) Uani 1 2 d S T P . .
Si1 Si 0.5000 -0.1649(2) -0.7569(3) 0.1035(19) Uani 1 2 d S T P . .
Si2 Si 0.5000 -0.0099(3) -0.2442(3) 0.127(3) Uani 1 2 d S T P . .
C1 C 0.5000 -0.1310(5) -0.5065(8) 0.058(4) Uani 1 2 d S T P . .
C2 C 0.5000 -0.1955(6) -0.4578(11) 0.075(5) Uani 1 2 d S T P . .
C3 C 0.5000 -0.2391(6) -0.4624(12) 0.096(7) Uani 1 2 d S T P . .
C4 C 0.5000 -0.1727(5) -0.5127(10) 0.066(5) Uani 1 2 d S T P . .
C7 C 0.5000 -0.1056(5) -0.5618(8) 0.059(4) Uani 1 2 d S T P . .
C9 C 0.5000 -0.0444(5) -0.4963(9) 0.069(4) Uani 1 2 d S T P . .
C12 C 0.5000 -0.0631(5) -0.5574(8) 0.072(5) Uani 1 2 d S T P . .
C13 C 0.5000 -0.1232(5) -0.6269(8) 0.066(4) Uani 1 2 d S T P . .
C15 C 0.5000 -0.2627(8) -0.4094(19) 0.129(10) Uani 1 2 d S T P . .
C17 C 0.5000 -0.0668(5) -0.4416(9) 0.069(5) Uani 1 2 d S T P . .
C21 C 0.5000 -0.1120(5) -0.4431(10) 0.065(4) Uani 1 2 d S T P . .
C25 C 0.5000 -0.0322(6) -0.3247(10) 0.090(6) Uani 1 2 d S T P . .
C27 C 0.5000 -0.1787(6) -0.3962(12) 0.085(6) Uani 1 2 d S T P . .
C29 C 0.5000 -0.1360(6) -0.3884(9) 0.077(5) Uani 1 2 d S T P . .
C601 C 0.285(3) 0.0210(7) -0.2373(13) 0.210(9) Uiso 1 1 d . . . . .
C802 C 0.5000 -0.0494(6) -0.3758(9) 0.080(5) Uani 1 2 d S T P . .
C803 C 0.5000 -0.055(2) -0.1881(18) 0.36(3) Uani 1 2 d S T P . .
C902 C 0.5000 -0.2443(9) -0.341(2) 0.149(13) Uani 1 2 d S T P . .
C905 C 0.5000 -0.2205(10) -0.737(2) 0.227(18) Uani 1 2 d S T P . .
C910 C 0.5000 -0.1373(5) -0.6778(8) 0.073(5) Uani 1 2 d S T P . .
C913 C 0.713(2) -0.1516(7) -0.8050(8) 0.173(8) Uani 1 1 d . . . . .
C920 C 0.5000 -0.2024(8) -0.3340(11) 0.103(7) Uani 1 2 d S T P . .
 
loop_
 _atom_site_aniso_label
 _atom_site_aniso_U_11
 _atom_site_aniso_U_22
 _atom_site_aniso_U_33
 _atom_site_aniso_U_23
 _atom_site_aniso_U_13
 _atom_site_aniso_U_12
Si3 0.077(3) 0.078(4) 0.138(5) -0.025(3) 0.000 0.000
Si4 0.177(6) 0.076(4) 0.136(6) -0.005(5) 0.000 0.000
C5 0.038(8) 0.116(16) 0.053(11) 0.006(11) 0.000 0.000
C6 0.033(7) 0.070(11) 0.086(13) -0.018(10) 0.000 0.000
C8 0.047(8) 0.092(14) 0.084(15) -0.006(11) 0.000 0.000
C10 0.041(7) 0.065(10) 0.067(10) 0.001(9) 0.000 0.000
C11 0.049(8) 0.098(13) 0.065(11) -0.005(10) 0.000 0.000
C14 0.056(9) 0.046(9) 0.087(14) 0.013(10) 0.000 0.000
C16 0.047(8) 0.088(13) 0.072(13) 0.019(11) 0.000 0.000
C18 0.055(9) 0.057(11) 0.090(15) 0.004(9) 0.000 0.000
C19 0.074(10) 0.119(17) 0.038(10) -0.008(11) 0.000 0.000
C20 0.070(10) 0.066(12) 0.110(16) -0.033(12) 0.000 0.000
C22 0.065(13) 0.20(3) 0.094(18) 0.00(2) 0.000 0.000
C23 0.062(10) 0.067(12) 0.095(15) 0.009(11) 0.000 0.000
C24 0.070(10) 0.093(16) 0.083(14) 0.018(11) 0.000 0.000
C26 0.096(13) 0.26(3) 0.045(12) 0.039(19) 0.000 0.000
C28 0.117(14) 0.066(13) 0.075(12) 0.002(9) 0.000 0.000
C30 0.114(11) 0.123(11) 0.199(18) -0.042(11) 0.044(11) 0.026(9)
C801 0.086(14) 0.15(3) 0.22(4) 0.06(3) 0.000 0.000
C804 0.055(10) 0.16(2) 0.098(16) -0.016(17) 0.000 0.000
C901 0.103(13) 0.086(15) 0.116(18) -0.033(14) 0.000 0.000
C909 0.154(19) 0.15(2) 0.106(18) 0.02(2) 0.000 0.000
Si1 0.108(4) 0.112(5) 0.090(4) -0.035(4) 0.000 0.000
Si2 0.085(3) 0.203(8) 0.095(5) -0.067(5) 0.000 0.000
C1 0.038(7) 0.076(12) 0.060(10) 0.016(10) 0.000 0.000
C2 0.056(10) 0.075(13) 0.092(15) -0.003(12) 0.000 0.000
C3 0.087(12) 0.065(14) 0.14(2) 0.030(13) 0.000 0.000
C4 0.041(7) 0.056(11) 0.103(17) 0.001(10) 0.000 0.000
C7 0.051(8) 0.067(10) 0.059(11) -0.008(9) 0.000 0.000
C9 0.069(9) 0.079(12) 0.058(10) 0.007(10) 0.000 0.000
C12 0.066(9) 0.082(13) 0.067(13) 0.007(10) 0.000 0.000
C13 0.064(10) 0.078(11) 0.056(11) 0.002(9) 0.000 0.000
C15 0.103(16) 0.088(18) 0.19(3) 0.03(2) 0.000 0.000
C17 0.043(8) 0.079(12) 0.085(14) -0.005(10) 0.000 0.000
C21 0.042(7) 0.069(11) 0.083(13) -0.014(10) 0.000 0.000
C25 0.097(12) 0.094(15) 0.079(15) -0.016(12) 0.000 0.000
C27 0.044(9) 0.077(13) 0.13(2) 0.043(13) 0.000 0.000
C29 0.035(8) 0.114(16) 0.082(14) 0.036(12) 0.000 0.000
C802 0.051(10) 0.108(15) 0.082(14) -0.022(12) 0.000 0.000
C803 0.58(9) 0.38(7) 0.10(3) 0.02(4) 0.000 0.000
C902 0.067(13) 0.12(2) 0.26(4) 0.10(3) 0.000 0.000
C905 0.34(5) 0.12(3) 0.22(5) 0.01(3) 0.000 0.000
C910 0.066(10) 0.097(13) 0.056(11) -0.015(10) 0.000 0.000
C913 0.152(14) 0.27(2) 0.093(11) -0.048(13) 0.061(10) -0.041(14)
C920 0.068(12) 0.13(2) 0.112(18) 0.045(15) 0.000 0.000
 
_geom_special_details
;
 All esds (except the esd in the dihedral angle between two l.s. planes)
 are estimated using the full covariance matrix.  The cell esds are taken
 into account individually in the estimation of esds in distances, angles
 and torsion angles; correlations between esds in cell parameters are only
 used when they are defined by crystal symmetry.  An approximate (isotropic)
 treatment of cell esds is used for estimating esds involving l.s. planes.
;
 
loop_
 _geom_bond_atom_site_label_1
 _geom_bond_atom_site_label_2
 _geom_bond_distance
 _geom_bond_site_symmetry_2
 _geom_bond_publ_flag
Si3 C901 1.81(2) . ?
Si3 C30 1.855(14) . ?
Si3 C30 1.855(14) 3 ?
Si3 C909 1.89(3) . ?
Si4 C707 1.77(6) . ?
Si4 C28 1.79(2) . ?
Si4 C704 1.85(6) . ?
Si4 C703 2.05(4) 3 ?
Si4 C703 2.05(4) . ?
C5 C14 1.36(2) . ?
C5 C11 1.41(2) . ?
C5 C804 1.43(2) . ?
C6 C10 1.400(18) . ?
C6 C8 1.40(2) . ?
C6 C16 1.40(2) . ?
C8 C23 1.42(2) . ?
C8 C20 1.46(2) . ?
C10 C11 1.43(2) . ?
C10 C18 1.46(2) . ?
C14 C16 1.33(2) . ?
C14 C22 1.47(3) . ?
C18 C19 1.38(2) . ?
C18 C24 1.44(3) . ?
C19 C23 1.41(2) . ?
C20 C901 1.16(2) . ?
C22 C801 1.33(4) . ?
C24 C28 1.26(3) . ?
C26 C804 1.45(3) . ?
C26 C801 1.49(4) . ?
Si1 C913 1.836(15) 3_655 ?
Si1 C913 1.836(15) . ?
Si1 C910 1.863(17) . ?
Si1 C905 1.88(3) . ?
Si2 C25 1.81(2) . ?
Si2 C601 1.81(2) 3_655 ?
Si2 C601 1.81(2) . ?
Si2 C803 1.89(6) . ?
C1 C4 1.38(2) . ?
C1 C7 1.41(2) . ?
C1 C21 1.45(2) . ?
C2 C4 1.36(2) . ?
C2 C27 1.38(3) . ?
C2 C3 1.44(3) . ?
C3 C15 1.34(3) . ?
C7 C12 1.41(2) . ?
C7 C13 1.46(2) . ?
C9 C17 1.35(2) . ?
C9 C12 1.40(2) . ?
C13 C910 1.14(2) . ?
C15 C902 1.54(4) . ?
C17 C802 1.47(2) . ?
C17 C21 1.49(2) . ?
C21 C29 1.37(2) . ?
C25 C802 1.19(2) . ?
C27 C29 1.42(3) . ?
C27 C920 1.50(3) . ?
C902 C920 1.39(3) . ?
 
loop_
 _geom_angle_atom_site_label_1
 _geom_angle_atom_site_label_2
 _geom_angle_atom_site_label_3
 _geom_angle
 _geom_angle_site_symmetry_1
 _geom_angle_site_symmetry_3
 _geom_angle_publ_flag
C901 Si3 C30 109.3(7) . . ?
C901 Si3 C30 109.3(7) . 3 ?
C30 Si3 C30 105.2(12) . 3 ?
C901 Si3 C909 108.0(11) . . ?
C30 Si3 C909 112.5(8) . . ?
C30 Si3 C909 112.5(8) 3 . ?
C707 Si4 C28 112(2) . . ?
C707 Si4 C704 134(3) . . ?
C28 Si4 C704 113.7(19) . . ?
C707 Si4 C703 88.2(15) . 3 ?
C28 Si4 C703 109.1(11) . 3 ?
C704 Si4 C703 77.0(15) . 3 ?
C707 Si4 C703 88.2(15) . . ?
C28 Si4 C703 109.1(11) . . ?
C704 Si4 C703 77.0(15) . . ?
C703 Si4 C703 140(2) 3 . ?
C14 C5 C11 118.0(16) . . ?
C14 C5 C804 126(2) . . ?
C11 C5 C804 116.0(19) . . ?
C10 C6 C8 118.6(19) . . ?
C10 C6 C16 122.8(19) . . ?
C8 C6 C16 118.6(18) . . ?
C6 C8 C23 121.5(18) . . ?
C6 C8 C20 120.5(18) . . ?
C23 C8 C20 118.0(18) . . ?
C6 C10 C11 117.9(18) . . ?
C6 C10 C18 119.3(18) . . ?
C11 C10 C18 122.8(16) . . ?
C5 C11 C10 118.8(16) . . ?
C16 C14 C5 126.9(18) . . ?
C16 C14 C22 115.0(19) . . ?
C5 C14 C22 118(2) . . ?
C14 C16 C6 115.6(18) . . ?
C19 C18 C24 120.3(17) . . ?
C19 C18 C10 121.7(17) . . ?
C24 C18 C10 118.0(18) . . ?
C18 C19 C23 118.5(17) . . ?
C901 C20 C8 176(2) . . ?
C801 C22 C14 117(3) . . ?
C19 C23 C8 120.4(17) . . ?
C28 C24 C18 175(2) . . ?
C804 C26 C801 114(2) . . ?
C24 C28 Si4 172.6(17) . . ?
C22 C801 C26 128(3) . . ?
C5 C804 C26 118(2) . . ?
C20 C901 Si3 174(2) . . ?
C913 Si1 C913 107.8(14) 3_655 . ?
C913 Si1 C910 110.7(7) 3_655 . ?
C913 Si1 C910 110.7(7) . . ?
C913 Si1 C905 110.4(10) 3_655 . ?
C913 Si1 C905 110.4(10) . . ?
C910 Si1 C905 107.0(14) . . ?
C25 Si2 C601 107.5(9) . 3_655 ?
C25 Si2 C601 107.5(9) . . ?
C601 Si2 C601 110.8(15) 3_655 . ?
C25 Si2 C803 103.4(17) . . ?
C601 Si2 C803 113.5(11) 3_655 . ?
C601 Si2 C803 113.5(11) . . ?
C4 C1 C7 121.2(17) . . ?
C4 C1 C21 121.1(17) . . ?
C7 C1 C21 117.7(14) . . ?
C4 C2 C27 122.6(18) . . ?
C4 C2 C3 120(2) . . ?
C27 C2 C3 118(2) . . ?
C15 C3 C2 122(2) . . ?
C2 C4 C1 118.4(19) . . ?
C12 C7 C1 122.8(16) . . ?
C12 C7 C13 117.1(16) . . ?
C1 C7 C13 120.0(15) . . ?
C17 C9 C12 120.5(16) . . ?
C9 C12 C7 119.8(16) . . ?
C910 C13 C7 179(2) . . ?
C3 C15 C902 121(2) . . ?
C9 C17 C802 123.5(17) . . ?
C9 C17 C21 122.2(19) . . ?
C802 C17 C21 114.3(17) . . ?
C29 C21 C1 119.1(16) . . ?
C29 C21 C17 123.9(19) . . ?
C1 C21 C17 117.0(17) . . ?
C802 C25 Si2 176(2) . . ?
C2 C27 C29 120.2(19) . . ?
C2 C27 C920 125(2) . . ?
C29 C27 C920 115(2) . . ?
C21 C29 C27 118.7(19) . . ?
C25 C802 C17 175(2) . . ?
C920 C902 C15 119(3) . . ?
C13 C910 Si1 174.8(18) . . ?
C902 C920 C27 116(3) . . ?
 
loop_
 _geom_torsion_atom_site_label_1
 _geom_torsion_atom_site_label_2
 _geom_torsion_atom_site_label_3
 _geom_torsion_atom_site_label_4
 _geom_torsion
 _geom_torsion_site_symmetry_1
 _geom_torsion_site_symmetry_2
 _geom_torsion_site_symmetry_3
 _geom_torsion_site_symmetry_4
 _geom_torsion_publ_flag
C10 C6 C8 C23 0.000(5) . . . . ?
C16 C6 C8 C23 180.000(4) . . . . ?
C10 C6 C8 C20 180.000(4) . . . . ?
C16 C6 C8 C20 0.000(4) . . . . ?
C8 C6 C10 C11 180.000(3) . . . . ?
C16 C6 C10 C11 0.000(4) . . . . ?
C8 C6 C10 C18 0.000(4) . . . . ?
C16 C6 C10 C18 180.000(4) . . . . ?
C14 C5 C11 C10 0.000(3) . . . . ?
C804 C5 C11 C10 180.000(3) . . . . ?
C6 C10 C11 C5 0.000(3) . . . . ?
C18 C10 C11 C5 180.000(3) . . . . ?
C11 C5 C14 C16 0.000(4) . . . . ?
C804 C5 C14 C16 180.000(4) . . . . ?
C11 C5 C14 C22 180.000(4) . . . . ?
C804 C5 C14 C22 0.000(4) . . . . ?
C5 C14 C16 C6 0.000(4) . . . . ?
C22 C14 C16 C6 180.000(3) . . . . ?
C10 C6 C16 C14 0.000(5) . . . . ?
C8 C6 C16 C14 180.000(4) . . . . ?
C6 C10 C18 C19 0.000(3) . . . . ?
C11 C10 C18 C19 180.000(4) . . . . ?
C6 C10 C18 C24 180.000(3) . . . . ?
C11 C10 C18 C24 0.000(4) . . . . ?
C24 C18 C19 C23 180.000(4) . . . . ?
C10 C18 C19 C23 0.000(4) . . . . ?
C16 C14 C22 C801 180.000(5) . . . . ?
C5 C14 C22 C801 0.000(5) . . . . ?
C18 C19 C23 C8 0.000(5) . . . . ?
C6 C8 C23 C19 0.000(5) . . . . ?
C20 C8 C23 C19 180.000(4) . . . . ?
C14 C22 C801 C26 0.000(6) . . . . ?
C804 C26 C801 C22 0.000(4) . . . . ?
C14 C5 C804 C26 0.000(4) . . . . ?
C11 C5 C804 C26 180.000(3) . . . . ?
C801 C26 C804 C5 0.000(3) . . . . ?
C4 C2 C3 C15 180.000(7) . . . . ?
C27 C2 C3 C15 0.000(8) . . . . ?
C27 C2 C4 C1 0.000(5) . . . . ?
C3 C2 C4 C1 180.000(4) . . . . ?
C7 C1 C4 C2 180.000(4) . . . . ?
C21 C1 C4 C2 0.000(5) . . . . ?
C4 C1 C7 C12 180.000(3) . . . . ?
C21 C1 C7 C12 0.000(4) . . . . ?
C4 C1 C7 C13 0.000(4) . . . . ?
C21 C1 C7 C13 180.000(3) . . . . ?
C17 C9 C12 C7 0.000(3) . . . . ?
C1 C7 C12 C9 0.000(4) . . . . ?
C13 C7 C12 C9 180.000(3) . . . . ?
C2 C3 C15 C902 0.000(7) . . . . ?
C12 C9 C17 C802 180.000(3) . . . . ?
C12 C9 C17 C21 0.000(4) . . . . ?
C4 C1 C21 C29 0.000(4) . . . . ?
C7 C1 C21 C29 180.000(3) . . . . ?
C4 C1 C21 C17 180.000(3) . . . . ?
C7 C1 C21 C17 0.000(4) . . . . ?
C9 C17 C21 C29 180.000(3) . . . . ?
C802 C17 C21 C29 0.000(4) . . . . ?
C9 C17 C21 C1 0.000(3) . . . . ?
C802 C17 C21 C1 180.000(3) . . . . ?
C4 C2 C27 C29 0.000(5) . . . . ?
C3 C2 C27 C29 180.000(4) . . . . ?
C4 C2 C27 C920 180.000(5) . . . . ?
C3 C2 C27 C920 0.000(5) . . . . ?
C1 C21 C29 C27 0.000(5) . . . . ?
C17 C21 C29 C27 180.000(4) . . . . ?
C2 C27 C29 C21 0.000(4) . . . . ?
C920 C27 C29 C21 180.000(4) . . . . ?
C3 C15 C902 C920 0.000(7) . . . . ?
C15 C902 C920 C27 0.000(7) . . . . ?
C2 C27 C920 C902 0.000(7) . . . . ?
C29 C27 C920 C902 180.000(8) . . . . ?
 
_refine_diff_density_max    0.498
_refine_diff_density_min   -0.309
_refine_diff_density_rms    0.068


